[Molden Format]
[Title]
 Molden file created by orca_2mkl for BaseName=dihydrogen_opt

[Atoms] AU
H    1   1          0.0000000000         0.0000000000         0.2259050635 
H    2   1          0.0000000000         0.0000000000         1.6638210704 
[GTO]
  1 0
s   3 1.0 
       13.0107010000         0.1634903809
        1.9622572000         0.2773515510
        0.4445379600         0.3157501452
s   1 1.0 
        0.1219496200         0.1470772262
p   1 1.0 
        0.8000000000         1.0784563492

  2 0
s   3 1.0 
       13.0107010000         0.1634903809
        1.9622572000         0.2773515510
        0.4445379600         0.3157501452
s   1 1.0 
        0.1219496200         0.1470772262
p   1 1.0 
        0.8000000000         1.0784563492

[5D]
[7F]
[9G]
[MO]
 Sym=     1a
 Ene= -4.22382281487581E-01
 Spin= Alpha
 Occup= 2.000000
  1      -0.406484788754
  2      -0.174845799151
  3      -0.000000000000
  4       0.000000000000
  5      -0.018096717227
  6      -0.406484788778
  7      -0.174845799178
  8       0.000000000000
  9       0.000000000001
 10       0.018096717236
 Sym=     1a
 Ene= 7.22442673257696E-02
 Spin= Alpha
 Occup= 0.000000
  1      -0.219863529943
  2      -1.766509703124
  3       0.000000000001
  4      -0.000000000000
  5       0.014709033299
  6       0.219863530124
  7       1.766509702926
  8      -0.000000000000
  9       0.000000000001
 10       0.014709033299
 Sym=     1a
 Ene= 3.35414990158293E-01
 Spin= Alpha
 Occup= 0.000000
  1      -0.701646082129
  2       0.725708018372
  3       0.000000000001
  4      -0.000000000000
  5      -0.021280750054
  6      -0.701646082119
  7       0.725708018809
  8       0.000000000000
  9       0.000000000001
 10       0.021280750119
 Sym=     1a
 Ene= 7.15979619378036E-01
 Spin= Alpha
 Occup= 0.000000
  1      -0.920103952527
  2       1.714729677873
  3       0.000000000002
  4      -0.000000000001
  5       0.278115581798
  6       0.920103952539
  7      -1.714729677889
  8      -0.000000000003
  9      -0.000000000002
 10       0.278115581799
 Sym=     1a
 Ene= 1.16946176028839E+00
 Spin= Alpha
 Occup= 0.000000
  1       0.000000000002
  2      -0.000000000007
  3      -0.288566157014
  4      -0.514387034632
  5      -0.000000000002
  6      -0.000000000003
  7       0.000000000007
  8      -0.288566157009
  9      -0.514387034625
 10      -0.000000000000
 Sym=     1a
 Ene= 1.16946176028853E+00
 Spin= Alpha
 Occup= 0.000000
  1      -0.000000000001
  2       0.000000000000
  3       0.514387034632
  4      -0.288566157013
  5      -0.000000000002
  6       0.000000000002
  7      -0.000000000001
  8       0.514387034624
  9      -0.288566157009
 10      -0.000000000002
 Sym=     1a
 Ene= 1.79334897355533E+00
 Spin= Alpha
 Occup= 0.000000
  1      -0.417816516640
  2       0.216657316485
  3      -0.000000000001
  4      -0.000000000005
  5       0.690639852619
  6      -0.417816516689
  7       0.216657316498
  8      -0.000000000000
  9       0.000000000003
 10      -0.690639852574
 Sym=     1a
 Ene= 1.93426480039991E+00
 Spin= Alpha
 Occup= 0.000000
  1       0.000000000007
  2       0.000000000002
  3      -0.569117629479
  4      -0.751494230018
  5       0.000000000004
  6      -0.000000000004
  7      -0.000000000003
  8       0.569117629483
  9       0.751494230022
 10       0.000000000009
 Sym=     1a
 Ene= 1.93426480040073E+00
 Spin= Alpha
 Occup= 0.000000
  1      -0.000000000012
  2      -0.000000000002
  3       0.751494230018
  4      -0.569117629480
  5      -0.000000000015
  6       0.000000000015
  7       0.000000000000
  8      -0.751494230022
  9       0.569117629483
 10      -0.000000000012
 Sym=     1a
 Ene= 3.34355729948628E+00
 Spin= Alpha
 Occup= 0.000000
  1      -2.302982999100
  2       0.012346727287
  3      -0.000000000007
  4       0.000000000002
  5      -1.916283076330
  6       2.302982999068
  7      -0.012346727262
  8       0.000000000006
  9      -0.000000000001
 10      -1.916283076345
