[Molden Format]
[Title]
 Molden file created by orca_2mkl for BaseName=indene

[Atoms] AU
C    1   6          1.2652472234         1.2493340996        -0.0038386424 
C    2   6          0.3425087657        -1.2246582996        -0.0367458796 
C    3   6         -2.2518946454        -1.6970401402        -0.0424943651 
C    4   6         -3.9119766635         0.3519716379        -0.0146476928 
C    5   6         -0.3944262117         3.3058648425         0.0240632381 
C    6   6         -2.9782932888         2.8484776654         0.0185924871 
C    7   6         -6.6729182009         0.4700915122        -0.0123095212 
C    8   6         -5.1790484478         4.6426721027         0.0430233887 
C    9   6         -7.4213588720         2.9055857862         0.0206386749 
H   10   1          3.3038649100         1.5790547543         0.0000497102 
H   11   1          1.6703347864        -2.8066082380        -0.0581983763 
H   12   1         -2.9659501775        -3.6351361000        -0.0682157927 
H   13   1          0.3411158968         5.2368589001         0.0496018501 
H   14   1         -7.9119681471        -1.1789802142        -0.0340635775 
H   15   1         -5.1687683399         5.9230801114        -1.6075652839 
H   16   1         -5.1677917435         5.8796322867         1.7264049997 
H   17   1         -9.3740196299         3.5688802217         0.0300977985 
[GTO]
  1 0
s   5 1.0 
     1238.4016938000         0.8208956682
      186.2900499200         1.4766449896
       42.2511763460         2.1526124058
       11.6765579320         2.1081722461
        3.5930506482         0.8290999933
s   1 1.0 
        0.4024514736         0.3601183351
s   1 1.0 
        0.1309018267         0.1551027052
p   3 1.0 
        9.4680970621         1.3467645142
        2.0103545142         1.0678070931
        0.5477100471         0.5108735714
p   1 1.0 
        0.1526861379         0.1360471976
d   1 1.0 
        0.8000000000         1.9292013661

  2 0
s   5 1.0 
     1238.4016938000         0.8208956682
      186.2900499200         1.4766449896
       42.2511763460         2.1526124058
       11.6765579320         2.1081722461
        3.5930506482         0.8290999933
s   1 1.0 
        0.4024514736         0.3601183351
s   1 1.0 
        0.1309018267         0.1551027052
p   3 1.0 
        9.4680970621         1.3467645142
        2.0103545142         1.0678070931
        0.5477100471         0.5108735714
p   1 1.0 
        0.1526861379         0.1360471976
d   1 1.0 
        0.8000000000         1.9292013661

  3 0
s   5 1.0 
     1238.4016938000         0.8208956682
      186.2900499200         1.4766449896
       42.2511763460         2.1526124058
       11.6765579320         2.1081722461
        3.5930506482         0.8290999933
s   1 1.0 
        0.4024514736         0.3601183351
s   1 1.0 
        0.1309018267         0.1551027052
p   3 1.0 
        9.4680970621         1.3467645142
        2.0103545142         1.0678070931
        0.5477100471         0.5108735714
p   1 1.0 
        0.1526861379         0.1360471976
d   1 1.0 
        0.8000000000         1.9292013661

  4 0
s   5 1.0 
     1238.4016938000         0.8208956682
      186.2900499200         1.4766449896
       42.2511763460         2.1526124058
       11.6765579320         2.1081722461
        3.5930506482         0.8290999933
s   1 1.0 
        0.4024514736         0.3601183351
s   1 1.0 
        0.1309018267         0.1551027052
p   3 1.0 
        9.4680970621         1.3467645142
        2.0103545142         1.0678070931
        0.5477100471         0.5108735714
p   1 1.0 
        0.1526861379         0.1360471976
d   1 1.0 
        0.8000000000         1.9292013661

  5 0
s   5 1.0 
     1238.4016938000         0.8208956682
      186.2900499200         1.4766449896
       42.2511763460         2.1526124058
       11.6765579320         2.1081722461
        3.5930506482         0.8290999933
s   1 1.0 
        0.4024514736         0.3601183351
s   1 1.0 
        0.1309018267         0.1551027052
p   3 1.0 
        9.4680970621         1.3467645142
        2.0103545142         1.0678070931
        0.5477100471         0.5108735714
p   1 1.0 
        0.1526861379         0.1360471976
d   1 1.0 
        0.8000000000         1.9292013661

  6 0
s   5 1.0 
     1238.4016938000         0.8208956682
      186.2900499200         1.4766449896
       42.2511763460         2.1526124058
       11.6765579320         2.1081722461
        3.5930506482         0.8290999933
s   1 1.0 
        0.4024514736         0.3601183351
s   1 1.0 
        0.1309018267         0.1551027052
p   3 1.0 
        9.4680970621         1.3467645142
        2.0103545142         1.0678070931
        0.5477100471         0.5108735714
p   1 1.0 
        0.1526861379         0.1360471976
d   1 1.0 
        0.8000000000         1.9292013661

  7 0
s   5 1.0 
     1238.4016938000         0.8208956682
      186.2900499200         1.4766449896
       42.2511763460         2.1526124058
       11.6765579320         2.1081722461
        3.5930506482         0.8290999933
s   1 1.0 
        0.4024514736         0.3601183351
s   1 1.0 
        0.1309018267         0.1551027052
p   3 1.0 
        9.4680970621         1.3467645142
        2.0103545142         1.0678070931
        0.5477100471         0.5108735714
p   1 1.0 
        0.1526861379         0.1360471976
d   1 1.0 
        0.8000000000         1.9292013661

  8 0
s   5 1.0 
     1238.4016938000         0.8208956682
      186.2900499200         1.4766449896
       42.2511763460         2.1526124058
       11.6765579320         2.1081722461
        3.5930506482         0.8290999933
s   1 1.0 
        0.4024514736         0.3601183351
s   1 1.0 
        0.1309018267         0.1551027052
p   3 1.0 
        9.4680970621         1.3467645142
        2.0103545142         1.0678070931
        0.5477100471         0.5108735714
p   1 1.0 
        0.1526861379         0.1360471976
d   1 1.0 
        0.8000000000         1.9292013661

  9 0
s   5 1.0 
     1238.4016938000         0.8208956682
      186.2900499200         1.4766449896
       42.2511763460         2.1526124058
       11.6765579320         2.1081722461
        3.5930506482         0.8290999933
s   1 1.0 
        0.4024514736         0.3601183351
s   1 1.0 
        0.1309018267         0.1551027052
p   3 1.0 
        9.4680970621         1.3467645142
        2.0103545142         1.0678070931
        0.5477100471         0.5108735714
p   1 1.0 
        0.1526861379         0.1360471976
d   1 1.0 
        0.8000000000         1.9292013661

 10 0
s   3 1.0 
       13.0107010000         0.1634903809
        1.9622572000         0.2773515510
        0.4445379600         0.3157501452
s   1 1.0 
        0.1219496200         0.1470772262
p   1 1.0 
        0.8000000000         1.0784563492

 11 0
s   3 1.0 
       13.0107010000         0.1634903809
        1.9622572000         0.2773515510
        0.4445379600         0.3157501452
s   1 1.0 
        0.1219496200         0.1470772262
p   1 1.0 
        0.8000000000         1.0784563492

 12 0
s   3 1.0 
       13.0107010000         0.1634903809
        1.9622572000         0.2773515510
        0.4445379600         0.3157501452
s   1 1.0 
        0.1219496200         0.1470772262
p   1 1.0 
        0.8000000000         1.0784563492

 13 0
s   3 1.0 
       13.0107010000         0.1634903809
        1.9622572000         0.2773515510
        0.4445379600         0.3157501452
s   1 1.0 
        0.1219496200         0.1470772262
p   1 1.0 
        0.8000000000         1.0784563492

 14 0
s   3 1.0 
       13.0107010000         0.1634903809
        1.9622572000         0.2773515510
        0.4445379600         0.3157501452
s   1 1.0 
        0.1219496200         0.1470772262
p   1 1.0 
        0.8000000000         1.0784563492

 15 0
s   3 1.0 
       13.0107010000         0.1634903809
        1.9622572000         0.2773515510
        0.4445379600         0.3157501452
s   1 1.0 
        0.1219496200         0.1470772262
p   1 1.0 
        0.8000000000         1.0784563492

 16 0
s   3 1.0 
       13.0107010000         0.1634903809
        1.9622572000         0.2773515510
        0.4445379600         0.3157501452
s   1 1.0 
        0.1219496200         0.1470772262
p   1 1.0 
        0.8000000000         1.0784563492

 17 0
s   3 1.0 
       13.0107010000         0.1634903809
        1.9622572000         0.2773515510
        0.4445379600         0.3157501452
s   1 1.0 
        0.1219496200         0.1470772262
p   1 1.0 
        0.8000000000         1.0784563492

[5D]
[7F]
[9G]
[MO]
 Sym=     1a
 Ene= -1.02448230584797E+01
 Spin= Alpha
 Occup= 2.000000
  1       0.000503902141
  2      -0.000177791257
  3       0.019603978354
  4      -0.000039363265
  5       0.000200990948
  6       0.000002709498
  7      -0.008654899828
  8      -0.000444988106
  9      -0.000004148731
 10      -0.000122491838
 11      -0.000001150945
 12       0.000002801019
 13       0.000003073380
 14      -0.000082944688
 15       0.000305562620
 16       0.000185066309
 17      -0.014708270697
 18      -0.000044421559
 19      -0.000005662453
 20      -0.000000066220
 21       0.003480271298
 22      -0.004780543074
 23      -0.000064749288
 24       0.000042327763
 25      -0.000000604388
 26      -0.000001033997
 27       0.000005684219
 28      -0.000046735074
 29       0.001433080383
 30       0.000411137719
 31       0.016309116339
 32      -0.000074249437
 33       0.000099257735
 34       0.000001320404
 35       0.001621488395
 36       0.006755411143
 37       0.000090257858
 38      -0.000036791460
 39       0.000000912115
 40       0.000001647946
 41      -0.000059299747
 42       0.000068168984
 43       0.001293775306
 44       0.000101978448
 45      -0.016578935296
 46       0.000309820898
 47      -0.000086644831
 48      -0.000001123542
 49      -0.012845866302
 50       0.000097760254
 51       0.000004431708
 52      -0.000031553449
 53      -0.000003794897
 54       0.000001393618
 55      -0.000041899436
 56      -0.000284911193
 57       0.000665853018
 58       0.000533062325
 59      -0.029451645846
 60       0.000219264943
 61      -0.000311835426
 62      -0.000004239500
 63       0.006453733687
 64       0.011987273321
 65       0.000159295357
 66       0.000081267880
 67       0.000002381587
 68      -0.000000415035
 69      -0.000116559407
 70       0.000179523082
 71       0.009154703636
 72      -0.002049872119
 73       0.038701571852
 74       0.000680279283
 75      -0.000769633703
 76      -0.000010277182
 77       0.010077939534
 78      -0.005342501146
 79      -0.000075823936
 80       0.000584249213
 81       0.000017178551
 82      -0.000010274677
 83      -0.000267302921
 84       0.001259690512
 85       0.000108190690
 86      -0.001138358250
 87      -0.004675347675
 88      -0.000226755314
 89      -0.000041046164
 90      -0.000000416211
 91      -0.001086035409
 92       0.001403386537
 93       0.000019019594
 94      -0.000173293305
 95       0.000002504395
 96       0.000004278046
 97      -0.000027809994
 98       0.000198433481
 99       0.988046268372
100       0.051442021529
101      -0.051412865957
102       0.000295222620
103       0.000601340626
104       0.000006358551
105       0.001465318048
106       0.005191054668
107       0.000072917357
108       0.000690920303
109       0.000000250990
110      -0.000004968567
111      -0.000827439243
112      -0.000030585271
113       0.011494741117
114      -0.001596505190
115       0.015507352533
116      -0.001117541407
117      -0.001014488719
118      -0.000013174058
119       0.004506396498
120       0.003554168983
121       0.000045049853
122       0.000753073986
123      -0.000015684168
124      -0.000012222926
125      -0.000365658470
126      -0.001211543685
127       0.000458127837
128       0.000675841265
129       0.000088757701
130      -0.000056793111
131      -0.000000747832
132      -0.000277544063
133      -0.000198372095
134      -0.000006696676
135       0.000063678543
136       0.000000855273
137       0.000319232171
138       0.000463489457
139      -0.000015226839
140      -0.000092877618
141      -0.000001273019
142      -0.001072972458
143      -0.001453047766
144      -0.000031076853
145       0.000050982650
146       0.000000579615
147       0.000255424270
148       0.000927464197
149      -0.000010251400
150      -0.000042147467
151      -0.000000535627
152      -0.002550860773
153       0.008130533151
154       0.000045683295
155       0.001149048924
156      -0.002273119692
157      -0.002552044456
158       0.008128163497
159       0.000047097953
160       0.001089491746
161       0.002301946606
162      -0.000183840463
163      -0.000967623865
164       0.000076186349
165      -0.000121932350
166      -0.000001540526
 Sym=     1a
 Ene= -1.02390016575284E+01
 Spin= Alpha
 Occup= 2.000000
  1      -0.000446162099
  2      -0.000075956677
  3      -0.004735833168
  4       0.000011735461
  5       0.000018353041
  6       0.000000260740
  7       0.001380667270
  8      -0.001277953758
  9      -0.000017439424
 10       0.000038219331
 11       0.000000193217
 12      -0.000001318034
 13       0.000031979405
 14       0.000013607395
 15       0.000132641752
 16       0.000035364576
 17       0.005360741455
 18      -0.000062289256
 19      -0.000046991658
 20      -0.000000597315
 21      -0.002348976145
 22       0.001224607791
 23       0.000016900009
 24       0.000014857277
 25      -0.000000331731
 26      -0.000000343414
 27      -0.000000394094
 28      -0.000025505998
 29       0.002124414403
 30       0.000525642193
 31      -0.007775230532
 32       0.000016987672
 33       0.000047053870
 34       0.000000597279
 35      -0.002532713217
 36      -0.005267367177
 37      -0.000070136024
 38       0.000114275436
 39       0.000001072297
 40      -0.000004643792
 41       0.000144882094
 42       0.000077940175
 43       0.009021873964
 44      -0.000156483186
 45       0.007710702311
 46      -0.000203026816
 47      -0.000141918169
 48      -0.000001978529
 49       0.008631329414
 50       0.004483946239
 51       0.000058796940
 52      -0.000078388824
 53      -0.000002813770
 54       0.000005254064
 55      -0.000248426337
 56      -0.000205773079
 57       0.002829418754
 58       0.000575364741
 59       0.003860781166
 60      -0.000175810234
 61       0.000014833990
 62       0.000000249122
 63       0.001963221916
 64      -0.001995889003
 65      -0.000027184747
 66       0.000073637854
 67      -0.000000431386
 68      -0.000000513463
 69      -0.000089283608
 70      -0.000036294698
 71      -0.004035785280
 72      -0.000477679969
 73      -0.007776094435
 74       0.000059893087
 75       0.000038846630
 76       0.000000504821
 77      -0.001111306475
 78       0.004703933724
 79       0.000063248346
 80      -0.000013494314
 81       0.000001484415
 82      -0.000004112248
 83       0.000331195398
 84       0.000119539237
 85       0.148956763767
 86       0.003254590588
 87       0.012163885475
 88       0.000907326737
 89      -0.002301429629
 90      -0.000030909085
 91       0.002212694695
 92      -0.000180519382
 93      -0.000003845243
 94       0.000665788986
 95       0.000004749256
 96      -0.000026881796
 97       0.000837692413
 98       0.000359584487
 99      -0.010655469938
100      -0.002206137765
101       0.006180610833
102       0.001288347203
103       0.001069883954
104       0.000013693757
105      -0.001544613723
106      -0.003167831744
107      -0.000041009252
108       0.000828738611
109      -0.000016923353
110      -0.000014743547
111      -0.000310143638
112      -0.001303765855
113       0.977254092452
114       0.045048076564
115      -0.032111751963
116      -0.000461386568
117       0.000142451179
118       0.000002123311
119      -0.005090349393
120       0.001070579269
121       0.000015771805
122      -0.001965043485
123      -0.000014884894
124       0.000037239821
125       0.000642775538
126      -0.001011364129
127       0.000035139366
128       0.000140644863
129      -0.000013486964
130       0.000044233887
131       0.000000598710
132       0.000146956243
133       0.000151074613
134       0.000046491747
135      -0.000007646467
136      -0.000000108506
137      -0.000485605957
138      -0.001392792238
139      -0.000068037527
140       0.000031877992
141       0.000000470562
142       0.000092010747
143      -0.000391092306
144      -0.000116817328
145       0.000127239446
146       0.000001733261
147      -0.000726221927
148      -0.000721069956
149      -0.000314064234
150       0.000310172379
151       0.000004336358
152       0.000097728816
153       0.001404937671
154      -0.000417274187
155      -0.000281395965
156       0.000183051609
157       0.000098048778
158       0.001403708523
159      -0.000417237598
160      -0.000276552348
161      -0.000190347471
162      -0.005011965021
163       0.005494609134
164      -0.002729701013
165       0.000822340212
166       0.000011812549
 Sym=     1a
 Ene= -1.02377864746456E+01
 Spin= Alpha
 Occup= 2.000000
  1       0.008549309384
  2      -0.000552185265
  3      -0.001229504809
  4       0.000216523462
  5       0.000071117715
  6       0.000000986434
  7      -0.002059772674
  8      -0.002547275217
  9      -0.000033349011
 10      -0.000042984662
 11       0.000001130232
 12      -0.000001309407
 13       0.000175441176
 14       0.000093624494
 15      -0.004284069038
 16      -0.001561232462
 17      -0.005596440650
 18       0.000119502495
 19      -0.000283044336
 20      -0.000003786905
 21       0.001021155908
 22       0.003444591393
 23       0.000045575656
 24      -0.000092218695
 25      -0.000001634590
 26       0.000001977642
 27       0.000014329371
 28      -0.000120166855
 29       0.009770580481
 30      -0.000705154489
 31      -0.010868591437
 32       0.000159258655
 33      -0.000359897381
 34      -0.000005022064
 35       0.011125592939
 36      -0.003482088197
 37      -0.000048586897
 38       0.000114773222
 39       0.000003795516
 40      -0.000000993755
 41      -0.000130882963
 42       0.000277544967
 43       0.177667286988
 44       0.004991491470
 45       0.012669511846
 46      -0.000573222717
 47      -0.001310391557
 48      -0.000017305913
 49      -0.000606735626
 50      -0.016234168838
 51      -0.000218083886
 52       0.000602708400
 53      -0.000013549547
 54      -0.000029140951
 55       0.001142803071
 56      -0.001006703121
 57       0.147612162888
 58       0.003554062376
 59       0.005302812922
 60       0.002272198407
 61       0.000213990477
 62       0.000002462834
 63       0.001592509784
 64       0.001703676420
 65       0.000021658173
 66       0.000689708437
 67      -0.000004442751
 68      -0.000000123270
 69      -0.001169741638
 70      -0.000375757490
 71       0.961162315349
 72       0.043403645913
 73      -0.012050370417
 74       0.000020191701
 75      -0.000477663876
 76      -0.000006769222
 77      -0.004921256791
 78      -0.002062394612
 79      -0.000025590842
 80      -0.001570892721
 81       0.000001378171
 82       0.000028565200
 83       0.000582226712
 84       0.000155453455
 85       0.015961169406
 86       0.000613568381
 87      -0.005730587705
 88      -0.000095211275
 89       0.000021118281
 90       0.000000347667
 91      -0.004634172058
 92       0.004410084638
 93       0.000060397133
 94       0.000200627490
 95       0.000005275245
 96      -0.000001724858
 97      -0.000233012888
 98       0.000383428327
 99      -0.008559577572
100      -0.001733343470
101      -0.007152589807
102      -0.001541243763
103       0.001224367463
104       0.000016503926
105       0.001665642806
106       0.002431718803
107       0.000031907443
108       0.000828298093
109       0.000019163299
110      -0.000017625942
111      -0.000144777484
112       0.001405982855
113      -0.000609499840
114      -0.000840547297
115       0.003870207766
116      -0.000022475602
117       0.000069860159
118       0.000000910415
119       0.005549648072
120       0.001671149600
121       0.000020735196
122      -0.000170452433
123      -0.000002182293
124       0.000001296195
125       0.000200846869
126      -0.000150561133
127       0.000508194529
128       0.000917300208
129       0.000016172027
130       0.000215025741
131       0.000002870334
132       0.000639231097
133       0.001167186735
134      -0.000037836131
135      -0.000072343126
136      -0.000000931332
137       0.000495401300
138       0.001654742525
139      -0.000484810284
140       0.000182151508
141       0.000002447718
142      -0.001076902742
143      -0.000929401178
144      -0.000421576429
145       0.000236444714
146       0.000003254223
147       0.000245713035
148       0.001163037389
149       0.000245391190
150      -0.000263873572
151      -0.000003607473
152       0.000201795442
153       0.001486504445
154       0.000283046268
155      -0.000424675500
156       0.000060264927
157       0.000201745924
158       0.001486262731
159       0.000282939003
160      -0.000423255252
161      -0.000071755052
162       0.000597749427
163       0.000907647571
164      -0.000196631753
165      -0.000098088082
166      -0.000001242281
 Sym=     1a
 Ene= -1.02367866068920E+01
 Spin= Alpha
 Occup= 2.000000
  1      -0.010067460782
  2      -0.001209228427
  3      -0.014445241511
  4       0.000130362319
  5       0.000124257941
  6       0.000001667157
  7       0.003107223161
  8      -0.001874271670
  9      -0.000025987332
 10      -0.000036666202
 11      -0.000000580388
 12      -0.000000343897
 13       0.000090197001
 14      -0.000042169273
 15       0.012616977486
 16       0.000408155610
 17       0.010708981255
 18      -0.000120094287
 19      -0.000144767730
 20      -0.000002008768
 21      -0.003048883862
 22       0.004774832531
 23       0.000064759284
 24      -0.000084163632
 25      -0.000001617195
 26       0.000002202529
 27      -0.000016316814
 28      -0.000119991167
 29       0.095665055473
 30       0.001716186123
 31      -0.004061300950
 32       0.001630406197
 33      -0.001440361642
 34      -0.000019754153
 35      -0.006174591068
 36      -0.007985050517
 37      -0.000105040281
 38       0.000782199063
 39       0.000014805175
 40      -0.000022622758
 41       0.000314203959
 42       0.001089392747
 43       0.874266187193
 44       0.039325620088
 45      -0.000497740361
 46       0.000832696212
 47       0.000653837443
 48       0.000008857353
 49       0.008649995983
 50       0.010787627631
 51       0.000141569692
 52      -0.001524881261
 53      -0.000003471903
 54       0.000048022551
 55      -0.000940915998
 56      -0.000218953248
 57      -0.063547516642
 58      -0.002571709615
 59       0.001437932737
 60      -0.000612410047
 61       0.000085592991
 62       0.000001119333
 63       0.007164457322
 64      -0.010015644174
 65      -0.000135652989
 66      -0.000111155884
 67       0.000003063821
 68       0.000001020215
 69       0.000111987749
 70       0.000229021270
 71      -0.158810679277
 72      -0.009922406589
 73       0.004204363028
 74       0.000712521840
 75       0.001466783254
 76       0.000019383090
 77       0.002570914799
 78       0.018777817598
 79       0.000252056779
 80       0.001167265294
 81      -0.000012611159
 82      -0.000041614680
 83       0.001096199697
 84      -0.000946722144
 85       0.411789700370
 86       0.017336757291
 87      -0.013377707425
 88      -0.001883308394
 89       0.000374824107
 90       0.000005853370
 91       0.000153606646
 92      -0.009220889272
 93      -0.000124633792
 94      -0.000062273526
 95       0.000002723975
 96       0.000023133326
 97      -0.001626489481
 98       0.000170950747
 99       0.000818919791
100       0.000960220395
101      -0.014111247668
102       0.000100383305
103      -0.000410066664
104      -0.000005285595
105      -0.004877537028
106       0.001279477330
107       0.000015303829
108      -0.000118099632
109      -0.000001924047
110       0.000009872548
111      -0.000539643886
112      -0.000140841111
113      -0.071151111129
114      -0.005177846647
115       0.016192388138
116      -0.000265875395
117       0.000930895741
118       0.000012649982
119       0.005517438954
120      -0.004455234086
121      -0.000060467346
122       0.000428716532
123       0.000004753131
124      -0.000014612037
125       0.000337985824
126       0.000334489775
127       0.000262626963
128       0.000627787225
129      -0.000016421860
130      -0.000001931177
131       0.000000009086
132       0.000404254337
133       0.000595645484
134      -0.000042670966
135      -0.000189357093
136      -0.000002558416
137      -0.001686588062
138      -0.002604205745
139      -0.000232243188
140       0.000188750822
141       0.000002554292
142       0.001254933782
143       0.002073480955
144      -0.000321030199
145       0.000092293053
146       0.000001327273
147      -0.002862251562
148       0.000513669614
149      -0.000575753013
150      -0.000723560946
151      -0.000009413943
152       0.000238764023
153       0.000895719500
154       0.000086760733
155       0.000304284756
156       0.000022434314
157       0.000240034548
158       0.000897704985
159       0.000086879135
160       0.000304580333
161      -0.000014322781
162       0.001036190064
163       0.000069388542
164       0.000289746820
165      -0.000197051787
166      -0.000002781306
 Sym=     1a
 Ene= -1.02365913839462E+01
 Spin= Alpha
 Occup= 2.000000
  1      -0.010437563119
  2      -0.001017959993
  3       0.013876782814
  4       0.000076301806
  5       0.000184471049
  6       0.000002462694
  7      -0.006858679520
  8      -0.003092809901
  9      -0.000040012192
 10      -0.000173547575
 11      -0.000001473492
 12       0.000004662696
 13      -0.000047544176
 14      -0.000107213464
 15       0.003755217442
 16      -0.000057042664
 17      -0.021869965562
 18       0.000266478875
 19       0.000073997271
 20       0.000000878775
 21       0.006012303783
 22      -0.005682786788
 23      -0.000077466393
 24       0.000045169084
 25      -0.000000903616
 26       0.000000330997
 27      -0.000099489511
 28      -0.000072068278
 29       0.057357642340
 30       0.001587638248
 31       0.039311073064
 32       0.000244874428
 33      -0.000700230490
 34      -0.000009590470
 35       0.001589623800
 36       0.016654149050
 37       0.000223573930
 38       0.000243467581
 39       0.000006881394
 40      -0.000008558050
 41       0.000211126720
 42       0.000510885859
 43       0.405206419453
 44       0.021831233836
 45      -0.038651094666
 46      -0.000752436204
 47       0.000144929950
 48       0.000002555324
 49      -0.025545163752
 50       0.010961357936
 51       0.000151547994
 52      -0.001566300068
 53      -0.000006601993
 54       0.000020009451
 55       0.001231419466
 56      -0.000412392645
 57      -0.087433851781
 58      -0.004816978570
 59      -0.023137511246
 60       0.000078656700
 61       0.000065955546
 62       0.000000695478
 63       0.008705245006
 64       0.004574163686
 65       0.000059487281
 66       0.000119012473
 67      -0.000000036951
 68      -0.000004431909
 69       0.000126029051
 70      -0.000005912333
 71      -0.047030283894
 72      -0.003468920017
 73       0.023592862686
 74       0.000022232306
 75       0.000976085331
 76       0.000013083662
 77       0.019770116514
 78      -0.004486249993
 79      -0.000065078706
 80       0.000341694289
 81      -0.000007982568
 82      -0.000010935821
 83       0.000227776994
 84      -0.000600017220
 85      -0.884103535571
 86      -0.044608093855
 87       0.019531262959
 88      -0.000937439652
 89      -0.000021363962
 90      -0.000000526663
 91      -0.004071488108
 92      -0.001589260461
 93      -0.000018484531
 94       0.002680541416
 95      -0.000011392039
 96      -0.000063557539
 97       0.000109667612
 98      -0.000958327087
 99      -0.001548858792
100       0.000767089215
101       0.006238905569
102       0.000775814699
103      -0.000066921344
104      -0.000001217183
105      -0.000518425665
106      -0.001021086911
107      -0.000012343360
108       0.000208419542
109      -0.000005866296
110      -0.000005131041
111       0.000036108674
112      -0.000446862943
113       0.130296069814
114       0.009688018346
115      -0.011188187641
116       0.000399043692
117      -0.002421158158
118      -0.000032881713
119       0.001290639751
120      -0.000140998372
121      -0.000002502355
122      -0.001252182327
123      -0.000012794586
124       0.000035045528
125      -0.000412616547
126      -0.000914518045
127       0.000572462540
128       0.000765313329
129       0.000048202853
130       0.000040675725
131       0.000000572233
132      -0.000282544501
133      -0.000130079008
134      -0.000143924633
135      -0.000012021290
136      -0.000000126940
137       0.000895382493
138       0.001559907795
139      -0.000054513616
140       0.000007904723
141      -0.000000030045
142       0.000328752841
143      -0.000016291774
144      -0.000294707488
145      -0.000229888538
146      -0.000003064066
147       0.003814651702
148      -0.006976629947
149       0.001839706325
150       0.002291460411
151       0.000030071791
152      -0.000080764399
153      -0.000420797484
154       0.000046392421
155      -0.000091708209
156      -0.000054328861
157      -0.000081284432
158      -0.000421516352
159       0.000046523190
160      -0.000093044768
161       0.000051801801
162      -0.000514977934
163       0.002312282620
164      -0.000773328591
165       0.000581641884
166       0.000008047528
 Sym=     1a
 Ene= -1.02362197764150E+01
 Spin= Alpha
 Occup= 2.000000
  1       0.085524052159
  2       0.000579918033
  3       0.006211389726
  4       0.001270770418
  5      -0.001839351323
  6      -0.000024896945
  7       0.001710624434
  8       0.000256347577