[Molden Format]
[Title]
 Molden file created by orca_2mkl for BaseName=indene_radcat_vertical

[Atoms] AU
C    1   6          1.2652472234         1.2493340996        -0.0038386424 
C    2   6          0.3425087657        -1.2246582996        -0.0367458796 
C    3   6         -2.2518946454        -1.6970401402        -0.0424943651 
C    4   6         -3.9119766635         0.3519716379        -0.0146476928 
C    5   6         -0.3944262117         3.3058648425         0.0240632381 
C    6   6         -2.9782932888         2.8484776654         0.0185924871 
C    7   6         -6.6729182009         0.4700915122        -0.0123095212 
C    8   6         -5.1790484478         4.6426721027         0.0430233887 
C    9   6         -7.4213588720         2.9055857862         0.0206386749 
H   10   1          3.3038649100         1.5790547543         0.0000497102 
H   11   1          1.6703347864        -2.8066082380        -0.0581983763 
H   12   1         -2.9659501775        -3.6351361000        -0.0682157927 
H   13   1          0.3411158968         5.2368589001         0.0496018501 
H   14   1         -7.9119681471        -1.1789802142        -0.0340635775 
H   15   1         -5.1687683399         5.9230801114        -1.6075652839 
H   16   1         -5.1677917435         5.8796322867         1.7264049997 
H   17   1         -9.3740196299         3.5688802217         0.0300977985 
[GTO]
  1 0
s   5 1.0 
     1238.4016938000         0.8208956682
      186.2900499200         1.4766449896
       42.2511763460         2.1526124058
       11.6765579320         2.1081722461
        3.5930506482         0.8290999933
s   1 1.0 
        0.4024514736         0.3601183351
s   1 1.0 
        0.1309018267         0.1551027052
p   3 1.0 
        9.4680970621         1.3467645142
        2.0103545142         1.0678070931
        0.5477100471         0.5108735714
p   1 1.0 
        0.1526861379         0.1360471976
d   1 1.0 
        0.8000000000         1.9292013661

  2 0
s   5 1.0 
     1238.4016938000         0.8208956682
      186.2900499200         1.4766449896
       42.2511763460         2.1526124058
       11.6765579320         2.1081722461
        3.5930506482         0.8290999933
s   1 1.0 
        0.4024514736         0.3601183351
s   1 1.0 
        0.1309018267         0.1551027052
p   3 1.0 
        9.4680970621         1.3467645142
        2.0103545142         1.0678070931
        0.5477100471         0.5108735714
p   1 1.0 
        0.1526861379         0.1360471976
d   1 1.0 
        0.8000000000         1.9292013661

  3 0
s   5 1.0 
     1238.4016938000         0.8208956682
      186.2900499200         1.4766449896
       42.2511763460         2.1526124058
       11.6765579320         2.1081722461
        3.5930506482         0.8290999933
s   1 1.0 
        0.4024514736         0.3601183351
s   1 1.0 
        0.1309018267         0.1551027052
p   3 1.0 
        9.4680970621         1.3467645142
        2.0103545142         1.0678070931
        0.5477100471         0.5108735714
p   1 1.0 
        0.1526861379         0.1360471976
d   1 1.0 
        0.8000000000         1.9292013661

  4 0
s   5 1.0 
     1238.4016938000         0.8208956682
      186.2900499200         1.4766449896
       42.2511763460         2.1526124058
       11.6765579320         2.1081722461
        3.5930506482         0.8290999933
s   1 1.0 
        0.4024514736         0.3601183351
s   1 1.0 
        0.1309018267         0.1551027052
p   3 1.0 
        9.4680970621         1.3467645142
        2.0103545142         1.0678070931
        0.5477100471         0.5108735714
p   1 1.0 
        0.1526861379         0.1360471976
d   1 1.0 
        0.8000000000         1.9292013661

  5 0
s   5 1.0 
     1238.4016938000         0.8208956682
      186.2900499200         1.4766449896
       42.2511763460         2.1526124058
       11.6765579320         2.1081722461
        3.5930506482         0.8290999933
s   1 1.0 
        0.4024514736         0.3601183351
s   1 1.0 
        0.1309018267         0.1551027052
p   3 1.0 
        9.4680970621         1.3467645142
        2.0103545142         1.0678070931
        0.5477100471         0.5108735714
p   1 1.0 
        0.1526861379         0.1360471976
d   1 1.0 
        0.8000000000         1.9292013661

  6 0
s   5 1.0 
     1238.4016938000         0.8208956682
      186.2900499200         1.4766449896
       42.2511763460         2.1526124058
       11.6765579320         2.1081722461
        3.5930506482         0.8290999933
s   1 1.0 
        0.4024514736         0.3601183351
s   1 1.0 
        0.1309018267         0.1551027052
p   3 1.0 
        9.4680970621         1.3467645142
        2.0103545142         1.0678070931
        0.5477100471         0.5108735714
p   1 1.0 
        0.1526861379         0.1360471976
d   1 1.0 
        0.8000000000         1.9292013661

  7 0
s   5 1.0 
     1238.4016938000         0.8208956682
      186.2900499200         1.4766449896
       42.2511763460         2.1526124058
       11.6765579320         2.1081722461
        3.5930506482         0.8290999933
s   1 1.0 
        0.4024514736         0.3601183351
s   1 1.0 
        0.1309018267         0.1551027052
p   3 1.0 
        9.4680970621         1.3467645142
        2.0103545142         1.0678070931
        0.5477100471         0.5108735714
p   1 1.0 
        0.1526861379         0.1360471976
d   1 1.0 
        0.8000000000         1.9292013661

  8 0
s   5 1.0 
     1238.4016938000         0.8208956682
      186.2900499200         1.4766449896
       42.2511763460         2.1526124058
       11.6765579320         2.1081722461
        3.5930506482         0.8290999933
s   1 1.0 
        0.4024514736         0.3601183351
s   1 1.0 
        0.1309018267         0.1551027052
p   3 1.0 
        9.4680970621         1.3467645142
        2.0103545142         1.0678070931
        0.5477100471         0.5108735714
p   1 1.0 
        0.1526861379         0.1360471976
d   1 1.0 
        0.8000000000         1.9292013661

  9 0
s   5 1.0 
     1238.4016938000         0.8208956682
      186.2900499200         1.4766449896
       42.2511763460         2.1526124058
       11.6765579320         2.1081722461
        3.5930506482         0.8290999933
s   1 1.0 
        0.4024514736         0.3601183351
s   1 1.0 
        0.1309018267         0.1551027052
p   3 1.0 
        9.4680970621         1.3467645142
        2.0103545142         1.0678070931
        0.5477100471         0.5108735714
p   1 1.0 
        0.1526861379         0.1360471976
d   1 1.0 
        0.8000000000         1.9292013661

 10 0
s   3 1.0 
       13.0107010000         0.1634903809
        1.9622572000         0.2773515510
        0.4445379600         0.3157501452
s   1 1.0 
        0.1219496200         0.1470772262
p   1 1.0 
        0.8000000000         1.0784563492

 11 0
s   3 1.0 
       13.0107010000         0.1634903809
        1.9622572000         0.2773515510
        0.4445379600         0.3157501452
s   1 1.0 
        0.1219496200         0.1470772262
p   1 1.0 
        0.8000000000         1.0784563492

 12 0
s   3 1.0 
       13.0107010000         0.1634903809
        1.9622572000         0.2773515510
        0.4445379600         0.3157501452
s   1 1.0 
        0.1219496200         0.1470772262
p   1 1.0 
        0.8000000000         1.0784563492

 13 0
s   3 1.0 
       13.0107010000         0.1634903809
        1.9622572000         0.2773515510
        0.4445379600         0.3157501452
s   1 1.0 
        0.1219496200         0.1470772262
p   1 1.0 
        0.8000000000         1.0784563492

 14 0
s   3 1.0 
       13.0107010000         0.1634903809
        1.9622572000         0.2773515510
        0.4445379600         0.3157501452
s   1 1.0 
        0.1219496200         0.1470772262
p   1 1.0 
        0.8000000000         1.0784563492

 15 0
s   3 1.0 
       13.0107010000         0.1634903809
        1.9622572000         0.2773515510
        0.4445379600         0.3157501452
s   1 1.0 
        0.1219496200         0.1470772262
p   1 1.0 
        0.8000000000         1.0784563492

 16 0
s   3 1.0 
       13.0107010000         0.1634903809
        1.9622572000         0.2773515510
        0.4445379600         0.3157501452
s   1 1.0 
        0.1219496200         0.1470772262
p   1 1.0 
        0.8000000000         1.0784563492

 17 0
s   3 1.0 
       13.0107010000         0.1634903809
        1.9622572000         0.2773515510
        0.4445379600         0.3157501452
s   1 1.0 
        0.1219496200         0.1470772262
p   1 1.0 
        0.8000000000         1.0784563492

[5D]
[7F]
[9G]
[MO]
 Sym=     1a
 Ene= -1.04677893205240E+01
 Spin= Alpha
 Occup= 1.000000
  1       0.000147614985
  2       0.000084572798
  3       0.001986016171
  4      -0.000015421302
  5      -0.000028273112
  6      -0.000000391683
  7      -0.000327226865
  8       0.001489348333
  9       0.000020034764
 10      -0.000021765271
 11      -0.000000096562
 12       0.000000796500
 13      -0.000021469912
 14      -0.000006630497
 15       0.000013290882
 16      -0.000023264067
 17      -0.002031591946
 18       0.000030068876
 19       0.000031694077
 20       0.000000399140
 21       0.001450587351
 22      -0.000225988915
 23      -0.000003316430
 24      -0.000022577710
 25       0.000000340128
 26       0.000000420344
 27       0.000007754662
 28       0.000026570718
 29      -0.000291458206
 30      -0.000496291643
 31       0.002714792759
 32       0.000059691275
 33      -0.000060100844
 34      -0.000000780057
 35       0.001980628469
 36       0.002759121169
 37       0.000036603514
 38      -0.000098473732
 39      -0.000000933632
 40       0.000004321469
 41      -0.000148768916
 42      -0.000068070550
 43      -0.001000394816
 44       0.000122584159
 45      -0.003026757884
 46       0.000324421485
 47       0.000177501119
 48       0.000002394383
 49      -0.004981171818
 50      -0.005129830513
 51      -0.000068212746
 52       0.000166740077
 53       0.000003384142
 54      -0.000004777913
 55       0.000058572080
 56       0.000241751767
 57      -0.000149311430
 58      -0.000351578595
 59      -0.000838626912
 60       0.000130895613
 61      -0.000014135141
 62      -0.000000222521
 63      -0.002474215156
 64       0.000667581342
 65       0.000009504335
 66      -0.000085863082
 67       0.000000583685
 68       0.000000900557
 69       0.000081303081
 70       0.000047705240
 71       0.000366625385
 72       0.000357281893
 73       0.005099209066
 74      -0.000030312427
 75      -0.000055868892
 76      -0.000000747646
 77      -0.001027577908
 78      -0.002819185762
 79      -0.000037391892
 80       0.000035413148
 81      -0.000001577875
 82       0.000002945301
 83      -0.000281379048
 84      -0.000125987439
 85      -0.024064552597
 86       0.002878341088
 87      -0.015522852806
 88      -0.000935007508
 89       0.002362846072
 90       0.000031823110
 91      -0.001678069090
 92      -0.000301828764
 93      -0.000003041553
 94      -0.000997627420
 95      -0.000003861570
 96       0.000036721805
 97      -0.000997206594
 98      -0.000282979126
 99      -0.002081744021
100       0.001513415666
101      -0.007532042433
102      -0.001344098204
103      -0.001076458638
104      -0.000013725177
105       0.001264273642
106       0.003469733627
107       0.000044725821
108      -0.000850239555
109       0.000017209373
110       0.000015692252
111       0.000274658762
112       0.001325966502
113      -0.988157837238
114      -0.046562973064
115       0.034794659124
116       0.000258541068
117       0.000504094313
118       0.000006583694
119       0.005552543426
120      -0.001614373827
121      -0.000023101391
122       0.001898526179
123       0.000016788199
124      -0.000037563972
125      -0.000508877928
126       0.001160239037
127      -0.000079831452
128      -0.000187233643
129       0.000005681522
130      -0.000049353725
131      -0.000000667858
132      -0.000087071430
133      -0.000103282361
134      -0.000034954262
135      -0.000003857312
136      -0.000000050294
137       0.000263180918
138       0.001063038267
139       0.000057100812
140      -0.000026464391
141      -0.000000380488
142      -0.000017338939
143       0.000531406937
144       0.000122985338
145      -0.000102928946
146      -0.000001401097
147       0.000134984383
148       0.001571802071
149       0.000065719505
150      -0.000604885332
151      -0.000008192489
152      -0.000034296567
153      -0.001396084536
154       0.000417219723
155       0.000291202903
156      -0.000150315154
157      -0.000034459842
158      -0.001394607306
159       0.000417154510
160       0.000287176804
161       0.000157899054
162       0.005063690100
163      -0.005660254760
164       0.002763320478
165      -0.000872463209
166      -0.000012499938
 Sym=     1a
 Ene= -1.04582979155792E+01
 Spin= Alpha
 Occup= 1.000000
  1      -0.002325284116
  2      -0.001309139652
  3      -0.007450194542
  4       0.000254231467
  5       0.000079320174
  6       0.000001047246
  7       0.000062297601
  8      -0.003492648789
  9      -0.000046893174
 10      -0.000057489512
 11       0.000000070790
 12       0.000000012699
 13       0.000099732403
 14       0.000008308978
 15       0.000318994241
 16      -0.000246953685
 17      -0.000770113687
 18      -0.000189849920
 19      -0.000233308574
 20      -0.000003175869
 21      -0.000412054780
 22       0.002961754063
 23       0.000039791537
 24      -0.000159528034
 25      -0.000001751685
 26       0.000002941445
 27       0.000060779917
 28      -0.000127181279
 29       0.010647576718
 30      -0.002941646721
 31       0.010820243416
 32       0.001683028446
 33      -0.001697496184
 34      -0.000023259221
 35      -0.001851723626
 36      -0.001564783458
 37      -0.000019697933
 38       0.001059753757
 39       0.000016845205
 40      -0.000030228317
 41       0.000400164107
 42       0.001233935665
 43       0.988110123915
 44       0.045946663592
 45      -0.018129662287
 46       0.000509150261
 47       0.000354308798
 48       0.000005104004
 49      -0.000488550655
 50       0.007211140801
 51       0.000095152898
 52      -0.001882295332
 53      -0.000010334245
 54       0.000045875848
 55      -0.000153544911
 56      -0.000703826563
 57       0.000162679714
 58      -0.000291065655
 59      -0.006925897977
 60      -0.000157668580
 61       0.000144994711
 62       0.000001818274
 63       0.009517295143
 64      -0.006611171543
 65      -0.000090736882
 66      -0.000062683210
 67       0.000002277017
 68       0.000002590405
 69      -0.000086832753
 70       0.000165980835
 71       0.019089212098
 72      -0.002396426864
 73       0.014932332226
 74       0.000616379851
 75       0.001591114151
 76       0.000021045654
 77       0.005811852513
 78       0.013404154752
 79       0.000179189431
 80       0.000958848466
 81      -0.000014315262
 82      -0.000037098881
 83       0.001118925149
 84      -0.001069749432
 85       0.015881570348
 86      -0.002279051917
 87      -0.001647121029
 88      -0.002015976576
 89       0.000279667511
 90       0.000004375773
 91      -0.001391427860
 92      -0.006589547962
 93      -0.000088081544
 94       0.001075268427
 95      -0.000000941188
 96      -0.000005789119
 97      -0.001436777670
 98      -0.000144067035
 99       0.000289979727
100       0.000879438998
101      -0.013909133585
102       0.000065052418
103      -0.000113798585
104      -0.000001465234
105      -0.004316482613
106       0.002091295725
107       0.000026773480
108       0.000125731796
109      -0.000000393059
110       0.000003361498
111      -0.000474756523
112      -0.000033929244
113      -0.001416637807
114      -0.000501357971
115       0.009617618499
116      -0.000082504801
117      -0.000093594603
118      -0.000001267552
119       0.006437757052
120      -0.002893806294
121      -0.000040087758
122      -0.000182285601
123      -0.000001453119
124       0.000001892650
125       0.000179920662
126      -0.000105848156
127       0.000451740897
128       0.000936494198
129      -0.000002775322
130       0.000099898359
131       0.000001371164
132       0.000497580436
133       0.000850442425
134      -0.000055364781
135      -0.000160991208
136      -0.000002161380
137      -0.000561667346
138      -0.001867478976
139      -0.000246602012
140       0.000487986756
141       0.000006476138
142       0.000716571012
143       0.001901439142
144      -0.000405963142
145       0.000205697481
146       0.000002829478
147      -0.000846602545
148      -0.001893554812
149       0.000275804685
150       0.000225405532
151       0.000002994679
152       0.000245122138
153       0.000985678539
154       0.000121116969
155       0.000133676596
156      -0.000003445649
157       0.000246018400
158       0.000987101917
159       0.000121299749
160       0.000133289039
161       0.000006961846
162       0.000765032017
163       0.001212289890
164      -0.000129024082
165       0.000009283131
166       0.000000135492
 Sym=     1a
 Ene= -1.04529951551766E+01
 Spin= Alpha
 Occup= 1.000000
  1      -0.000638103989
  2      -0.000382995616
  3       0.019399047205
  4       0.000082855032
  5       0.000013972574
  6       0.000000160904
  7      -0.007471384733
  8      -0.001875196377
  9      -0.000023460327
 10      -0.000095061296
 11      -0.000000298717
 12       0.000003159346
 13      -0.000072343155
 14      -0.000021280926
 15      -0.000206571401
 16      -0.000131029155
 17      -0.024698522045
 18       0.000278578729
 19       0.000121757866
 20       0.000001558456
 21       0.006666589680
 22      -0.007234955532
 23      -0.000098452726
 24       0.000050675129
 25      -0.000000122990
 26      -0.000000189694
 27      -0.000071298550
 28      -0.000012772762
 29       0.000882747221
 30      -0.000031584577
 31       0.037892270303
 32      -0.000421989297
 33      -0.000088174075
 34      -0.000001180999
 35       0.004179819528
 36       0.018856936123
 37       0.000252211850
 38      -0.000077914806
 39       0.000000114565
 40       0.000001161231
 41       0.000051447418
 42       0.000011631431
 43       0.014982486427
 44       0.004119620335
 45      -0.037489869894
 46      -0.000984040691
 47      -0.000072783339
 48      -0.000000449859
 49      -0.026852378069
 50       0.004070035217
 51       0.000059921636
 52      -0.000829967662
 53      -0.000004215133
 54      -0.000000871354
 55       0.001511452494
 56      -0.000258088296
 57      -0.000683984435
 58      -0.000736900940
 59      -0.023006729878
 60       0.000256780744
 61       0.000035402583
 62       0.000000346043
 63       0.004435147666
 64       0.008457457836
 65       0.000112394765
 66      -0.000002771558
 67      -0.000000765060
 68      -0.000001121076
 69       0.000089554062
 70      -0.000053915602
 71       0.000403565753
 72      -0.000299244440
 73       0.022868759889
 74      -0.000348063544
 75       0.000274874699
 76       0.000003842684
 77       0.015539407012
 78      -0.012470389570
 79      -0.000171532772
 80      -0.000073677808
 81      -0.000002733654
 82       0.000006584046
 83      -0.000365183296
 84      -0.000211844470
 85      -0.987951411755
 86      -0.047946424998
 87       0.022892330986
 88      -0.000199425972
 89      -0.000242950666
 90      -0.000003807573
 91      -0.003647752898
 92       0.002729077662
 93       0.000039640584
 94       0.002341880151
 95      -0.000011335089
 96      -0.000063311530
 97       0.000681207350
 98      -0.000929514240
 99       0.000242624893
100       0.000692466676
101       0.009051752742
102       0.000503808678
103      -0.000045094413
104      -0.000000903919
105       0.001603109872
106      -0.000480155967
107      -0.000004604421
108       0.000107419319
109      -0.000002678542
110      -0.000006452486
111       0.000308701747
112      -0.000202836460
113       0.023225791336
114       0.005261309334
115      -0.012699603745
116       0.000554060254
117      -0.002652297868
118      -0.000036042825
119      -0.000392522226
120       0.001830530814
121       0.000024036360
122      -0.001087045170
123      -0.000012006250
124       0.000034310529
125      -0.000644507707
126      -0.000863328663
127       0.000355573222
128       0.000342560223
129       0.000036863539
130       0.000052026113
131       0.000000707356
132      -0.000419916212
133      -0.000321902515
134      -0.000097000995
135       0.000070843846
136       0.000000984530
137       0.001610136250
138       0.002594904701
139       0.000075614787
140      -0.000038970254
141      -0.000000667464
142      -0.000459545066
143      -0.000466411399
144      -0.000049230155
145      -0.000116008251
146      -0.000001611233
147       0.004647047905
148      -0.006385835133
149       0.001886205423
150       0.002266486305
151       0.000029674825
152      -0.000162555353
153      -0.000899095600
154       0.000042069525
155      -0.000181172404
156      -0.000093845799
157      -0.000163648740
158      -0.000900405493
159       0.000042159710
160      -0.000183450656
161       0.000088928744
162      -0.000267238753
163       0.001352003226
164      -0.000481116458
165       0.000484908070
166       0.000006692681
 Sym=     1a
 Ene= -1.04490529916650E+01
 Spin= Alpha
 Occup= 1.000000
  1      -0.988186392475
  2      -0.047075572852
  3       0.033332908385
  4       0.000000746401
  5       0.000011926018
  6       0.000000356544
  7      -0.006048795876
  8      -0.001472055533
  9      -0.000018813278
 10       0.002028562078
 11      -0.000000656088
 12      -0.000041808716
 13      -0.000386877196
 14      -0.000127133286
 15      -0.009881626504
 16       0.003068885110
 17      -0.017095046771
 18       0.000894935022
 19       0.001953592588
 20       0.000025888796
 21       0.003181617303
 22       0.000377475318
 23       0.000004617427
 24      -0.001011332524
 25       0.000009467744
 26       0.000035359025
 27      -0.000899250703
 28       0.000728118290
 29      -0.000394392762
 30       0.000508817850
 31       0.004449205684
 32      -0.000206209963
 33       0.000174513764
 34       0.000002320053
 35       0.004521929804
 36      -0.003186744238
 37      -0.000043608632
 38       0.000161619929
 39      -0.000001411638
 40      -0.000004082408
 41       0.000025596822
 42      -0.000107009452
 43      -0.002199101061
 44       0.000934065134
 45       0.009539182695
 46       0.000312116354
 47       0.000146321757
 48       0.000001940609
 49      -0.000970540553
 50       0.001498639960
 51       0.000020178940
 52      -0.000010211348
 53      -0.000000041047
 54       0.000001792417
 55      -0.000115754106
 56      -0.000003511845
 57      -0.010511735915
 58       0.002996275103
 59      -0.018994816147
 60       0.001482304852
 61      -0.001569950521
 62      -0.000021571217
 63       0.004726486823
 64       0.000026307663
 65      -0.000000248586
 66      -0.001009801485
 67      -0.000015228590
 68       0.000027660967
 69      -0.000296318481
 70      -0.001113058726
 71      -0.015136312900
 72      -0.000252580700
 73       0.004911433544
 74      -0.000254722591
 75      -0.000351287048
 76      -0.000004710325
 77       0.005405928894
 78       0.007143134964
 79       0.000094541213
 80       0.000212627273
 81       0.000001348530
 82      -0.000005606939
 83       0.000049273166
 84       0.000101770797
 85       0.000621692321
 86      -0.000087875588
 87      -0.005043050779
 88      -0.000093091693
 89       0.000040853879
 90       0.000000588321
 91      -0.000535712558
 92      -0.001184141401
 93      -0.000015806271
 94      -0.000023706267
 95       0.000000740048
 96       0.000000433472
 97       0.000007244083
 98       0.000054032162
 99      -0.000331073506
100      -0.000060881674
101      -0.002144309668
102      -0.000088100216
103      -0.000067543860
104      -0.000000787390
105      -0.001294823316
106      -0.000219154689
107      -0.000003784988
108       0.000002595173
109      -0.000001231397
110       0.000002193946
111      -0.000171914309
112      -0.000093308465
113      -0.000179267529
114      -0.000130796488
115       0.002436707750
116      -0.000014928730
117       0.000004582299
118       0.000000084042
119       0.001094838844
120      -0.001474171941
121      -0.000019816908
122      -0.000064390486
123       0.000000102591
124       0.000001471979
125       0.000004177724
126       0.000006683496
127       0.005023788408
128      -0.005369560585
129      -0.002695522582
130      -0.000426417282
131      -0.000004968997
132       0.000172644540
133       0.001462029394
134      -0.000188107422
135      -0.000580364614
136      -0.000007735736
137      -0.000473171015
138      -0.001005704164
139      -0.000268740540
140       0.000154308612
141       0.000002106270
142       0.000245306869
143       0.001798878119
144      -0.000401460389
145       0.000492618413
146       0.000006549576
147      -0.000030893968
148       0.000373353709
149      -0.000011152524
150       0.000036376302
151       0.000000498535
152      -0.000027638087
153       0.000244025170
154      -0.000039819247
155       0.000075123139
156       0.000026774379
157      -0.000027257734
158       0.000245394253
159      -0.000039851690
160       0.000075651302
161      -0.000024793961
162       0.000130403984
163       0.000301585787
164       0.000009876452
165       0.000051297578
166       0.000000659066
 Sym=     1a
 Ene= -1.04484035847443E+01
 Spin= Alpha
 Occup= 1.000000
  1       0.015225315668
  2       0.001011345457
  3      -0.000249546448
  4       0.000001937747
  5      -0.000331457447
  6      -0.000004512655
  7       0.002593990881
  8       0.002059272077
  9       0.000026712873
 10       0.000124512461
 11       0.000001129770
 12      -0.000001282921
 13      -0.000124860770
 14       0.000074198824
 15       0.001168137372
 16       0.001217533771
 17       0.006874399434
 18      -0.000135788948
 19       0.000208989576
 20       0.000002777645
 21      -0.001883054883
 22      -0.002584591180
 23      -0.000033870002
 24       0.000074448848
 25       0.000001001297
 26      -0.000001706016
 27      -0.000002634697
 28       0.000073042957
 29       0.000759038585
 30       0.000301257438
 31       0.010363624956
 32       0.000197980141
 33      -0.000027920450
 34      -0.000000284088
 35      -0.011584796323
 36       0.002530239086
 37       0.000036106769
 38       0.000070459281
 39      -0.000000435494
 40      -0.000004379234
 41       0.000206914162
 42      -0.000030796957
 43       0.018270616703
 44       0.004052805807
 45      -0.017818911832
 46       0.000619619852
 47       0.001501280325
 48       0.000019940573
 49       0.002443800269
 50       0.015794694619
 51       0.000211447466
 52      -0.001036335948
 53       0.000012657089
 54       0.000040111632
 55      -0.001210014518
 56       0.000954020440
 57      -0.011648924336
 58       0.002990122255
 59      -0.008314352680
 60      -0.002461867638
 61      -0.000116362701
 62      -0.000001094898
 63      -0.000688092583
 64      -0.003049399837
 65      -0.000039945382
 66      -0.001027629267
 67       0.000006100905
 68       0.000008277926
 69       0.001141355274
 70       0.000510807125
 71      -0.988112234963
 72      -0.046039854477
 73       0.018471852776
 74      -0.000033398086
 75       0.000959898303
 76       0.000013217787
 77       0.002371197720
 78       0.004134310318
 79       0.000054049670
 80       0.001837264030
 81      -0.000005532021
 82      -0.000035283770
 83      -0.000539158361
 84      -0.000474193808
 85      -0.000089892399
 86      -0.000270442669
 87       0.006509302445
 88      -0.000248891014
 89       0.000036648773
 90       0.000000546167
 91       0.004681093815
 92      -0.005714406925
 93      -0.000077934674
 94      -0.000000200204
 95      -0.000005392212
 96       0.000000929640
 97      -0.000056031530
 98      -0.000405474946
 99      -0.003687166549
100       0.001398208331
101       0.001541089841
102       0.001519392650
103      -0.001259502324
104      -0.000016944043
105      -0.002553754170
106      -0.000757986679
107      -0.000009735395
108      -0.000847117702
109      -0.000019420023
110       0.000018725280
111       0.000095029435
112      -0.001423658661
113      -0.000402915418
114       0.000751605341
115      -0.001125738682
116       0.000042839348
117      -0.000032144686
118      -0.000000408922
119      -0.004097160175
120      -0.001762145367
121      -0.000022402169
122       0.000147550344
123       0.000002384974
124      -0.000001281094
125      -0.000162852869
126       0.000167248305
127      -0.000592666886
128      -0.000813942588
129      -0.000015803511
130      -0.000141561900
131      -0.000001887362
132      -0.000453023494
133      -0.000946874882
134       0.000045046012
135       0.000067926538
136       0.000000866449
137      -0.000646072345
138      -0.001893557862
139       0.000435008050
140      -0.000103619284
141      -0.000001405275
142       0.000606519752
143       0.002111041148
144       0.000521916673
145       0.000164269059
146       0.000002055087
147      -0.000515101822
148      -0.001591532155
149      -0.000228005462
150       0.000279157936
151       0.000003820063
152      -0.000078087175
153      -0.001332872349
154      -0.000293548386
155       0.000405675420
156      -0.000058401366
157      -0.000078000115
158      -0.001332324721
159      -0.000293378986
160       0.000404219382
161       0.000069428998
162      -0.000486018586
163      -0.000803134406
164       0.000159562600
165       0.000061564708
166       0.000000772117
 Sym=     1a
 Ene= -1.04369156460725E+01
 Spin= Alpha
 Occup= 1.000000
  1       0.000540636687
  2       0.000685737474
  3      -0.000200576954
  4      -0.000183577309
  5       0.000169477059
  6       0.000002231595
  7       0.003556906511
  8      -0.000430513333