[Molden Format]
[Title]
 Molden file created by orca_2mkl for BaseName=indene_radcat

[Atoms] AU
C    1   6          1.2186819531         1.2426758380        -0.0037309183 
C    2   6          0.3093399751        -1.2781282766        -0.0375131365 
C    3   6         -2.2465179139        -1.7522977474        -0.0434837344 
C    4   6         -3.9179988316         0.3544495252        -0.0147822501 
C    5   6         -0.4144999531         3.3491835004         0.0248092554 
C    6   6         -2.9748294857         2.9064311830         0.0192807496 
C    7   6         -6.5872868614         0.4271771491        -0.0127999297 
C    8   6         -5.1799682530         4.6860288271         0.0434744164 
C    9   6         -7.3754274750         2.9330799092         0.0212331685 
H   10   1          3.2606537898         1.5606371334         0.0002047771 
H   11   1          1.6627908959        -2.8356350136        -0.0586539595 
H   12   1         -2.9873433521        -3.6785121806        -0.0692379651 
H   13   1          0.3612387197         5.2614214447         0.0502765181 
H   14   1         -7.8336626121        -1.2168804286        -0.0344133374 
H   15   1         -5.2129038498         5.9749330385        -1.6019760808 
H   16   1         -5.2116314023         5.9325674335         1.7212285931 
H   17   1         -9.3459781293         3.5519495935         0.0304768492 
[GTO]
  1 0
s   5 1.0 
     1238.4016938000         0.8208956682
      186.2900499200         1.4766449896
       42.2511763460         2.1526124058
       11.6765579320         2.1081722461
        3.5930506482         0.8290999933
s   1 1.0 
        0.4024514736         0.3601183351
s   1 1.0 
        0.1309018267         0.1551027052
p   3 1.0 
        9.4680970621         1.3467645142
        2.0103545142         1.0678070931
        0.5477100471         0.5108735714
p   1 1.0 
        0.1526861379         0.1360471976
d   1 1.0 
        0.8000000000         1.9292013661

  2 0
s   5 1.0 
     1238.4016938000         0.8208956682
      186.2900499200         1.4766449896
       42.2511763460         2.1526124058
       11.6765579320         2.1081722461
        3.5930506482         0.8290999933
s   1 1.0 
        0.4024514736         0.3601183351
s   1 1.0 
        0.1309018267         0.1551027052
p   3 1.0 
        9.4680970621         1.3467645142
        2.0103545142         1.0678070931
        0.5477100471         0.5108735714
p   1 1.0 
        0.1526861379         0.1360471976
d   1 1.0 
        0.8000000000         1.9292013661

  3 0
s   5 1.0 
     1238.4016938000         0.8208956682
      186.2900499200         1.4766449896
       42.2511763460         2.1526124058
       11.6765579320         2.1081722461
        3.5930506482         0.8290999933
s   1 1.0 
        0.4024514736         0.3601183351
s   1 1.0 
        0.1309018267         0.1551027052
p   3 1.0 
        9.4680970621         1.3467645142
        2.0103545142         1.0678070931
        0.5477100471         0.5108735714
p   1 1.0 
        0.1526861379         0.1360471976
d   1 1.0 
        0.8000000000         1.9292013661

  4 0
s   5 1.0 
     1238.4016938000         0.8208956682
      186.2900499200         1.4766449896
       42.2511763460         2.1526124058
       11.6765579320         2.1081722461
        3.5930506482         0.8290999933
s   1 1.0 
        0.4024514736         0.3601183351
s   1 1.0 
        0.1309018267         0.1551027052
p   3 1.0 
        9.4680970621         1.3467645142
        2.0103545142         1.0678070931
        0.5477100471         0.5108735714
p   1 1.0 
        0.1526861379         0.1360471976
d   1 1.0 
        0.8000000000         1.9292013661

  5 0
s   5 1.0 
     1238.4016938000         0.8208956682
      186.2900499200         1.4766449896
       42.2511763460         2.1526124058
       11.6765579320         2.1081722461
        3.5930506482         0.8290999933
s   1 1.0 
        0.4024514736         0.3601183351
s   1 1.0 
        0.1309018267         0.1551027052
p   3 1.0 
        9.4680970621         1.3467645142
        2.0103545142         1.0678070931
        0.5477100471         0.5108735714
p   1 1.0 
        0.1526861379         0.1360471976
d   1 1.0 
        0.8000000000         1.9292013661

  6 0
s   5 1.0 
     1238.4016938000         0.8208956682
      186.2900499200         1.4766449896
       42.2511763460         2.1526124058
       11.6765579320         2.1081722461
        3.5930506482         0.8290999933
s   1 1.0 
        0.4024514736         0.3601183351
s   1 1.0 
        0.1309018267         0.1551027052
p   3 1.0 
        9.4680970621         1.3467645142
        2.0103545142         1.0678070931
        0.5477100471         0.5108735714
p   1 1.0 
        0.1526861379         0.1360471976
d   1 1.0 
        0.8000000000         1.9292013661

  7 0
s   5 1.0 
     1238.4016938000         0.8208956682
      186.2900499200         1.4766449896
       42.2511763460         2.1526124058
       11.6765579320         2.1081722461
        3.5930506482         0.8290999933
s   1 1.0 
        0.4024514736         0.3601183351
s   1 1.0 
        0.1309018267         0.1551027052
p   3 1.0 
        9.4680970621         1.3467645142
        2.0103545142         1.0678070931
        0.5477100471         0.5108735714
p   1 1.0 
        0.1526861379         0.1360471976
d   1 1.0 
        0.8000000000         1.9292013661

  8 0
s   5 1.0 
     1238.4016938000         0.8208956682
      186.2900499200         1.4766449896
       42.2511763460         2.1526124058
       11.6765579320         2.1081722461
        3.5930506482         0.8290999933
s   1 1.0 
        0.4024514736         0.3601183351
s   1 1.0 
        0.1309018267         0.1551027052
p   3 1.0 
        9.4680970621         1.3467645142
        2.0103545142         1.0678070931
        0.5477100471         0.5108735714
p   1 1.0 
        0.1526861379         0.1360471976
d   1 1.0 
        0.8000000000         1.9292013661

  9 0
s   5 1.0 
     1238.4016938000         0.8208956682
      186.2900499200         1.4766449896
       42.2511763460         2.1526124058
       11.6765579320         2.1081722461
        3.5930506482         0.8290999933
s   1 1.0 
        0.4024514736         0.3601183351
s   1 1.0 
        0.1309018267         0.1551027052
p   3 1.0 
        9.4680970621         1.3467645142
        2.0103545142         1.0678070931
        0.5477100471         0.5108735714
p   1 1.0 
        0.1526861379         0.1360471976
d   1 1.0 
        0.8000000000         1.9292013661

 10 0
s   3 1.0 
       13.0107010000         0.1634903809
        1.9622572000         0.2773515510
        0.4445379600         0.3157501452
s   1 1.0 
        0.1219496200         0.1470772262
p   1 1.0 
        0.8000000000         1.0784563492

 11 0
s   3 1.0 
       13.0107010000         0.1634903809
        1.9622572000         0.2773515510
        0.4445379600         0.3157501452
s   1 1.0 
        0.1219496200         0.1470772262
p   1 1.0 
        0.8000000000         1.0784563492

 12 0
s   3 1.0 
       13.0107010000         0.1634903809
        1.9622572000         0.2773515510
        0.4445379600         0.3157501452
s   1 1.0 
        0.1219496200         0.1470772262
p   1 1.0 
        0.8000000000         1.0784563492

 13 0
s   3 1.0 
       13.0107010000         0.1634903809
        1.9622572000         0.2773515510
        0.4445379600         0.3157501452
s   1 1.0 
        0.1219496200         0.1470772262
p   1 1.0 
        0.8000000000         1.0784563492

 14 0
s   3 1.0 
       13.0107010000         0.1634903809
        1.9622572000         0.2773515510
        0.4445379600         0.3157501452
s   1 1.0 
        0.1219496200         0.1470772262
p   1 1.0 
        0.8000000000         1.0784563492

 15 0
s   3 1.0 
       13.0107010000         0.1634903809
        1.9622572000         0.2773515510
        0.4445379600         0.3157501452
s   1 1.0 
        0.1219496200         0.1470772262
p   1 1.0 
        0.8000000000         1.0784563492

 16 0
s   3 1.0 
       13.0107010000         0.1634903809
        1.9622572000         0.2773515510
        0.4445379600         0.3157501452
s   1 1.0 
        0.1219496200         0.1470772262
p   1 1.0 
        0.8000000000         1.0784563492

 17 0
s   3 1.0 
       13.0107010000         0.1634903809
        1.9622572000         0.2773515510
        0.4445379600         0.3157501452
s   1 1.0 
        0.1219496200         0.1470772262
p   1 1.0 
        0.8000000000         1.0784563492

[5D]
[7F]
[9G]
[MO]
 Sym=     1a
 Ene= -1.04709885863427E+01
 Spin= Alpha
 Occup= 1.000000
  1       0.000122736497
  2       0.000076955070
  3       0.001108508026
  4      -0.000011675466
  5      -0.000033338229
  6      -0.000000454829
  7       0.000055770199
  8       0.001339911748
  9       0.000017901429
 10      -0.000022178865
 11      -0.000000072615
 12       0.000000830392
 13      -0.000023919475
 14      -0.000005187996
 15       0.000023895737
 16      -0.000018367670
 17      -0.000990971703
 18       0.000023947782
 19       0.000029474854
 20       0.000000374373
 21       0.000959498229
 22      -0.000090118236
 23      -0.000001235025
 24      -0.000029402871
 25       0.000000339995
 26       0.000000578939
 27       0.000007976058
 28       0.000026560177
 29      -0.000242428461
 30      -0.000482735331
 31       0.001752240097
 32       0.000077688241
 33      -0.000070313989
 34      -0.000000916746
 35       0.001306667185
 36       0.002215588144
 37       0.000029496129
 38      -0.000092513104
 39      -0.000000833458
 40       0.000003909653
 41      -0.000128950744
 42      -0.000060213837
 43      -0.000466743526
 44       0.000153913845
 45      -0.000783218286
 46       0.000292270397
 47       0.000147148162
 48       0.000001946556
 49      -0.004190598131
 50      -0.004056566686
 51      -0.000053586749
 52       0.000144595114
 53       0.000003223943
 54      -0.000004549084
 55       0.000080368215
 56       0.000231748867
 57      -0.000155297823
 58      -0.000420008784
 59       0.000294036828
 60       0.000126270052
 61      -0.000006107282
 62      -0.000000122033
 63      -0.002529878049
 64       0.000137337063
 65       0.000002508291
 66      -0.000097488016
 67       0.000000609395
 68       0.000001043584
 69       0.000090594837
 70       0.000050639410
 71       0.000372631335
 72       0.000352488162
 73       0.002605022491
 74      -0.000014434955
 75      -0.000061753025
 76      -0.000000697126
 77      -0.000914520989
 78      -0.001815659084
 79      -0.000024562029
 80       0.000045217880
 81      -0.000001653017
 82       0.000002885927
 83      -0.000288368718
 84      -0.000129583819
 85      -0.013121108778
 86       0.002868358355
 87      -0.015613347300
 88      -0.000869890495
 89       0.002126845938
 90       0.000028765527
 91      -0.001558299293
 92      -0.000658861066
 93      -0.000007708469
 94      -0.001036387480
 95      -0.000006010318
 96       0.000039198432
 97      -0.001104617303
 98      -0.000436167368
 99      -0.002397477599
100       0.001554059127
101      -0.007193209686
102      -0.001407350554
103      -0.001150541126
104      -0.000014264132
105       0.001025964591
106       0.003414498602
107       0.000041648716
108      -0.000848449696
109       0.000017037296
110       0.000015908162
111       0.000230269580
112       0.001326987398
113      -0.988398291376
114      -0.046327472990
115       0.034605045982
116       0.000257345885
117       0.000278936541
118       0.000003631273
119       0.005499933089
120      -0.001784038289
121      -0.000026019803
122       0.001804914258
123       0.000014502402
124      -0.000033353663
125      -0.000661223966
126       0.000930892314
127      -0.000093248273
128      -0.000186607746
129      -0.000002420540
130      -0.000041913082
131      -0.000000557007
132      -0.000071788893
133      -0.000078408912
134      -0.000025157598
135      -0.000000957312
136      -0.000000022748
137       0.000200624493
138       0.000916251739
139       0.000070771585
140      -0.000023684485
141      -0.000000320954
142       0.000019413716
143       0.000585694074
144       0.000125552042
145      -0.000101715099
146      -0.000001407804
147       0.000160014992
148       0.001540215169
149       0.000030385743
150      -0.000515410060
151      -0.000006999385
152      -0.000093575773
153      -0.001426160022
154       0.000430002068
155       0.000312862462
156      -0.000158042044
157      -0.000093154990
158      -0.001421880636
159       0.000429759799
160       0.000308219912
161       0.000166038725
162       0.005009929327
163      -0.005598843126
164       0.002754062621
165      -0.000812704763
166      -0.000012254497
 Sym=     1a
 Ene= -1.04564303095481E+01
 Spin= Alpha
 Occup= 1.000000
  1      -0.003516025795
  2      -0.001428695264
  3      -0.004522814514
  4       0.000268395454
  5       0.000087981698
  6       0.000001187648
  7      -0.001227262316
  8      -0.003790235289
  9      -0.000050957035
 10      -0.000079892978
 11       0.000000144265
 12       0.000000208616
 13       0.000122577611
 14       0.000013925061
 15       0.000321676137
 16      -0.000239604329
 17      -0.003584521010
 18      -0.000160207932
 19      -0.000223399006
 20      -0.000003078588
 21       0.000258931508
 22       0.001956547781
 23       0.000026293196
 24      -0.000146880751
 25      -0.000001781459
 26       0.000003061753
 27       0.000031507717
 28      -0.000131043879
 29       0.008991999981
 30      -0.002634971219
 31       0.013466454198
 32       0.001503283591
 33      -0.001575334775
 34      -0.000021596667
 35      -0.001310969057
 36      -0.000051539858
 37       0.000000652595
 38       0.001046497807
 39       0.000017730172
 40      -0.000030640383
 41       0.000448994971
 42       0.001301033926
 43       0.987459701743
 44       0.045754422491
 45      -0.018954657412
 46       0.000191994071
 47       0.000293724914
 48       0.000004727858
 49      -0.003279807983
 50       0.007515453191
 51       0.000099304881
 52      -0.001842283966
 53      -0.000009861678
 54       0.000041515962
 55       0.000109223161
 56      -0.000646070424
 57       0.000176487394
 58      -0.000364277603
 59      -0.010012851931
 60      -0.000101122805
 61       0.000152015437
 62       0.000001842889
 63       0.009958972557
 64      -0.005575779460
 65      -0.000076157360
 66      -0.000047317882
 67       0.000001816189
 68       0.000002450233
 69      -0.000103305153
 70       0.000131663554
 71       0.022274491785
 72      -0.001924390784
 73       0.017468316951
 74       0.000500268140
 75       0.001436618620
 76       0.000019050069
 77       0.007183564249
 78       0.012336649925
 79       0.000165648083
 80       0.000936776044
 81      -0.000014737287
 82      -0.000037635719
 83       0.001191317555
 84      -0.001101226906
 85       0.038900761697
 86      -0.001822879492
 87      -0.003742721697
 88      -0.002329835702
 89       0.000264201004
 90       0.000004578850
 91      -0.002606864349
 92      -0.006863486183
 93      -0.000091098987
 94       0.001048226189
 95      -0.000001204775
 96      -0.000006816611
 97      -0.001312393311
 98      -0.000190172746
 99       0.000399927740
100       0.000995721926
101      -0.014477941671
102       0.000059972128
103      -0.000107995862
104      -0.000001338827
105      -0.003819427892
106       0.002397600477
107       0.000030038168
108       0.000132333337
109      -0.000000100124
110       0.000003045032
111      -0.000455422915
112      -0.000015585275
113      -0.000989566135
114      -0.000574829940
115       0.010560543115
116      -0.000080075827
117      -0.000110005910
118      -0.000001467433
119       0.007118778413
120      -0.002495381795
121      -0.000035691011
122      -0.000161251682
123      -0.000001814675
124       0.000001541468
125       0.000173687045
126      -0.000131449159
127       0.000529275626
128       0.001026851393
129       0.000013188612
130       0.000104767451
131       0.000001449151
132       0.000421059901
133       0.000771655860
134      -0.000048382642
135      -0.000149886094
136      -0.000002028785
137      -0.000478498069
138      -0.001667835472
139      -0.000215585926
140       0.000424371357
141       0.000005609405
142       0.000641965640
143       0.001809808345
144      -0.000413536491
145       0.000202153555
146       0.000002749148
147      -0.000912462493
148      -0.001922939010
149       0.000355123823
150       0.000182986482
151       0.000002355590
152       0.000257670592
153       0.000949426204
154       0.000124155281
155       0.000115187728
156      -0.000017678934
157       0.000258729235
158       0.000951180077
159       0.000124092705
160       0.000114685505
161       0.000020685388
162       0.000804758692
163       0.001260414076
164      -0.000134316478
165      -0.000028305619
166      -0.000000440314
 Sym=     1a
 Ene= -1.04522784270221E+01
 Spin= Alpha
 Occup= 1.000000
  1       0.002556995789
  2       0.000571008096
  3      -0.017303325998
  4      -0.000112831755
  5      -0.000033278584
  6      -0.000000423500
  7       0.006708524792
  8       0.001456859692
  9       0.000018930923
 10       0.000092181918
 11       0.000000340196
 12      -0.000003180097
 13       0.000078714349
 14       0.000023951426
 15       0.000251078966
 16       0.000306569546
 17       0.022972165721
 18      -0.000284129397
 19      -0.000091577238
 20      -0.000001165137
 21      -0.006383134052
 22       0.006044172438
 23       0.000082084533
 24      -0.000007848125
 25      -0.000000090823
 26      -0.000000550662
 27       0.000051991711
 28      -0.000007398581
 29      -0.000967519447
 30       0.000152923567
 31      -0.034102766360
 32       0.000338395587
 33       0.000131228380
 34       0.000001759723
 35      -0.005076022519
 36      -0.017407791143
 37      -0.000233435910
 38       0.000052773926
 39      -0.000001095791
 40      -0.000001696601
 41       0.000033621191
 42      -0.000076279278
 43      -0.037892209704
 44      -0.005760072851
 45       0.033254758848
 46       0.001335265253
 47       0.000004133649
 48      -0.000000745526
 49       0.025535038977
 50      -0.002905688527
 51      -0.000044793027
 52       0.000913528339
 53       0.000004674979
 54      -0.000001665172
 55      -0.001470342158
 56       0.000261139145
 57       0.000707615179
 58       0.000838028378
 59       0.022041991480
 60      -0.000274407594
 61      -0.000050787300
 62      -0.000000546941
 63      -0.004461823045
 64      -0.007986463616
 65      -0.000107494927
 66       0.000017975699
 67       0.000001151045
 68       0.000000993501
 69      -0.000103697927
 70       0.000078648010
 71      -0.003055971794
 72       0.000202284078
 73      -0.021056369611
 74       0.000337912649
 75      -0.000364757044
 76      -0.000005068548
 77      -0.015618982924
 78       0.012115930649
 79       0.000167080294
 80       0.000050274540
 81       0.000003545703
 82      -0.000005373527
 83       0.000312445597
 84       0.000278733886
 85       0.987521491867
 86       0.047977654241
 87      -0.021808978421
 88       0.000537033989
 89      -0.000026116859
 90       0.000000027327
 91       0.003719309122
 92      -0.002705690770
 93      -0.000040482079
 94      -0.002353903354
 95       0.000012237953
 96       0.000058257576
 97      -0.000289477385
 98       0.001037428879
 99      -0.000286861328
100      -0.000660640747
101      -0.009878609628
102      -0.000448843351
103       0.000088318282
104       0.000001508787
105      -0.001706236869
106       0.000860619547
107       0.000008878476
108      -0.000093895029
109       0.000001713716
110       0.000005697191
111      -0.000272751064
112       0.000131044817
113      -0.012230255506
114      -0.004151220060
115       0.011949488119
116      -0.000507861243
117       0.002396876452
118       0.000032582330
119       0.000369304034
120      -0.001673563621
121      -0.000021425034
122       0.001093885967
123       0.000012808012
124      -0.000036611386
125       0.000793180398
126       0.000912797582
127      -0.000333363749
128      -0.000327156997
129      -0.000017565309
130      -0.000038937954
131      -0.000000556494
132       0.000320452449
133       0.000128820421
134       0.000098196859
135      -0.000069384503
136      -0.000000926952
137      -0.001551490665
138      -0.002718607660
139      -0.000037952084
140       0.000036449441
141       0.000000531035
142       0.000428888721
143       0.000426351846
144       0.000051719011
145       0.000122212656
146       0.000001759834
147      -0.004644096684
148       0.006280123724
149      -0.001871825905
150      -0.002280106484
151      -0.000029700185
152       0.000201438041
153       0.000911180215
154      -0.000031139306
155       0.000149250695
156       0.000088082975
157       0.000203020015
158       0.000912721563
159      -0.000031202227
160       0.000151259941
161      -0.000083933453
162       0.000097156867
163      -0.001269633163
164       0.000398642302
165      -0.000389616808
166      -0.000005524447
 Sym=     1a
 Ene= -1.04504720291708E+01
 Spin= Alpha
 Occup= 1.000000
  1      -0.986473908666
  2      -0.046694114662
  3       0.034065971041
  4      -0.000085204509
  5      -0.000058537573
  6      -0.000000642095
  7      -0.006330028926
  8      -0.001339606560
  9      -0.000017574392
 10       0.001943016078
 11      -0.000000360249
 12      -0.000040111974
 13      -0.000380565995
 14      -0.000078186886
 15      -0.007094396770
 16       0.003069246187
 17      -0.017619648388
 18       0.000804622658
 19       0.001873193707
 20       0.000025043613
 21       0.003474686857
 22      -0.000196982981
 23      -0.000002960581
 24      -0.000997790112
 25       0.000010321745
 26       0.000035877850
 27      -0.000943585979
 28       0.000781562988
 29      -0.000295419273
 30       0.000527618774
 31       0.006501051476
 32      -0.000200833117
 33       0.000183603810
 34       0.000002462631
 35       0.003923445269
 36      -0.002429853396
 37      -0.000033290630
 38       0.000161134512
 39      -0.000001272472
 40      -0.000004194093
 41       0.000033212163
 42      -0.000094923254
 43      -0.002411372168
 44       0.001051314838
 45       0.006644338812
 46       0.000342171667
 47       0.000190980600
 48       0.000002552690
 49      -0.001410657076
 50       0.002197293014
 51       0.000029568083
 52      -0.000040203891
 53       0.000000521530
 54       0.000003648218
 55      -0.000203064924
 56       0.000040187569
 57      -0.009230166076
 58       0.003124305144
 59      -0.020125586333
 60       0.001282852724
 61      -0.001566877399
 62      -0.000021433712
 63       0.004698175961
 64       0.000433390146
 65       0.000005619325
 66      -0.001051105077
 67      -0.000015285358
 68       0.000028320364
 69      -0.000272784510
 70      -0.001120593967
 71      -0.061440377315
 72      -0.002378994431
 73       0.006903823275
 74      -0.000265696343
 75      -0.000312145879
 76      -0.000004190332
 77       0.005571160407
 78       0.006710688774
 79       0.000089410536
 80       0.000295826846
 81       0.000001225862
 82      -0.000007013677
 83       0.000011695021
 84       0.000091872769
 85       0.002312142741
 86      -0.000104983963
 87      -0.004249291922
 88      -0.000111610797
 89       0.000039299533
 90       0.000000570768
 91      -0.000128701752
 92      -0.001331770452
 93      -0.000017753839
 94      -0.000044041803
 95       0.000000348927
 96       0.000000777819
 97       0.000017614115
 98       0.000025239009
 99      -0.000498198680
100       0.000011723374
101      -0.001742878549
102      -0.000009833162
103      -0.000126950829
104      -0.000001582548
105      -0.001399397991
106      -0.000338630945
107      -0.000005736292
108      -0.000041977504
109      -0.000002165801
110       0.000003028697
111      -0.000154113402
112      -0.000160524392
113      -0.000186171891
114      -0.000096926230
115       0.001889889892
116      -0.000009335595
117       0.000014523941
118       0.000000233489
119       0.000682601029
120      -0.001459843504
121      -0.000019546042
122      -0.000053943807
123       0.000000253702
124       0.000001341401
125      -0.000002993480
126       0.000016653930
127       0.004967524728
128      -0.005314052148
129      -0.002664680601
130      -0.000416395793
131      -0.000005115851
132       0.000129547288
133       0.001323758384
134      -0.000184535780
135      -0.000529836130
136      -0.000007104854
137      -0.000467324521
138      -0.001088554613
139      -0.000233751554
140       0.000137032064
141       0.000001885717
142       0.000231090694
143       0.001809327116
144      -0.000352827727
145       0.000475019880
146       0.000006302394
147      -0.000052761546
148       0.000323000507
149      -0.000031986666
150       0.000052942339
151       0.000000712449
152      -0.000028714312
153       0.000160078258
154      -0.000048458814
155       0.000090828327
156       0.000025750431
157      -0.000028268093
158       0.000162171486
159      -0.000048461868
160       0.000091292885
161      -0.000023363864
162       0.000083173629
163       0.000230515825
164       0.000018832552
165       0.000054182161
166       0.000000684169
 Sym=     1a
 Ene= -1.04503180707358E+01
 Spin= Alpha
 Occup= 1.000000
  1       0.061482136649
  2       0.003206581533
  3      -0.002523506851
  4       0.000012917300
  5      -0.000357732273
  6      -0.000004916725
  7       0.003046054644
  8       0.002670921656
  9       0.000035506198
 10       0.000035066967
 11       0.000001408745
 12       0.000000886160
 13      -0.000129980296
 14       0.000099592559
 15       0.001286809883
 16       0.001019571848
 17       0.007765323935
 18      -0.000167197251
 19       0.000124896408
 20       0.000001649175
 21      -0.001450112932
 22      -0.001994931864
 23      -0.000026396173
 24       0.000116670284
 25       0.000000271828
 26      -0.000003139337
 27       0.000031317929
 28       0.000018987759
 29       0.000614512226
 30       0.000194965724
 31       0.009265210643
 32       0.000164756267
 33      -0.000003783967
 34       0.000000079690
 35      -0.010589279989
 36       0.002417019450
 37       0.000034196657
 38       0.000046354202
 39      -0.000000542041
 40      -0.000003352615
 41       0.000174068330
 42      -0.000039109748
 43       0.021721487844
 44       0.003839425955
 45      -0.019006014988
 46       0.000491586080
 47       0.001312341860
 48       0.000017409086
 49       0.003531617186
 50       0.014310044534
 51       0.000191411453
 52      -0.001020193700
 53       0.000012914167
 54       0.000040382618
 55      -0.001250137333
 56       0.000967548802
 57      -0.011490900644
 58       0.003085162165
 59      -0.006317455262
 60      -0.002626325747
 61      -0.000043091707
 62      -0.000000214398
 63      -0.001751915202
 64      -0.003196738317
 65      -0.000042601041
 66      -0.000972282968
 67       0.000007254461
 68       0.000007656397
 69       0.001097828254
 70       0.000571220354
 71      -0.986268446292
 72      -0.045799930157
 73       0.018739552518
 74      -0.000086616872
 75       0.000800421094
 76       0.000010992356
 77       0.000308132075
 78       0.003495429052
 79       0.000047031479
 80       0.001803081221
 81      -0.000004718398
 82      -0.000032411977
 83      -0.000695881780
 84      -0.000388345057
 85      -0.002315297267
 86      -0.000274777157
 87       0.008860059310
 88      -0.000181677996
 89      -0.000009828157
 90      -0.000000040409
 91       0.005022096278
 92      -0.005094522522
 93      -0.000070716612
 94       0.000007017658
 95      -0.000005408742
 96       0.000000157596
 97      -0.000007220955
 98      -0.000405041829
 99      -0.003665668828
100       0.001494301030
101       0.000480674497
102       0.001528204274
103      -0.001245807304
104      -0.000016571442
105      -0.002609809763
106      -0.000498738059
107      -0.000008454359
108      -0.000860910399
109      -0.000019499293
110       0.000018769262
111       0.000106378812
112      -0.001425410338
113      -0.000363651067
114       0.000736252519
115      -0.002039480074
116       0.000037610016
117      -0.000042111385
118      -0.000000477157
119      -0.004137316947
120      -0.001353239908
121      -0.000015990884
122       0.000136619846
123       0.000002502369
124      -0.000000650481
125      -0.000188719408
126       0.000168477286
127      -0.000826858694
128      -0.000554829886
129       0.000104700690
130      -0.000139992690
131      -0.000001929637
132      -0.000450576834
133      -0.001009132963
134       0.000032112873
135       0.000063023913
136       0.000000815913
137      -0.000618752059
138      -0.001791330268
139       0.000409030656
140      -0.000121903972
141      -0.000001647308
142       0.000592339729
143       0.002066556857
144       0.000575611673
145       0.000158246490
146       0.000002104914
147      -0.000451596604
148      -0.001638193685
149      -0.000199875057
150       0.000270968447
151       0.000003777893
152      -0.000034330444
153      -0.001218367417
154      -0.000282623634
155       0.000382810390
156      -0.000066651093
157      -0.000033454040
158      -0.001215213706
159      -0.000282189521
160       0.000380764865
161       0.000077030606
162      -0.000489634844
163      -0.000762174991
164       0.000156176403
165       0.000044222820
166       0.000000507744
 Sym=     1a
 Ene= -1.04371583475716E+01
 Spin= Alpha
 Occup= 1.000000
  1      -0.000411874839
  2      -0.000718196596
  3       0.000848007271
  4       0.000193151378
  5      -0.000182780177
  6      -0.000002374439
  7      -0.003974585919
  8       0.000816991735